<?xml version="1.0" encoding="UTF-8"?>

<!-- generated on 2024-04-02 20:45:12 by Eclipse SUMO GUI Version 1.19.0
<configuration xmlns:xsi="http://www.w3.org/2001/XMLSchema-instance" xsi:noNamespaceSchemaLocation="http://sumo.dlr.de/xsd/sumoConfiguration.xsd">

    <input>
        <net-file value="data/road.net.xml"/>
        <route-files value="data/road.rou.xml"/>
        <additional-files value="data/e2.add.xml"/>
    </input>

    <output>
        <tripinfo-output value="tripinfo.xml"/>
    </output>

    <time>
        <begin value="0"/>
    </time>

    <report>
        <verbose value="false"/>
        <no-step-log value="false"/>
    </report>

    <traci_server>
        <remote-port value="57770"/>
    </traci_server>

    <gui_only>
        <gui-settings-file value="data/road.settings.xml"/>
        <start value="true"/>
    </gui_only>

</configuration>
-->

<tripinfos xmlns:xsi="http://www.w3.org/2001/XMLSchema-instance" xsi:noNamespaceSchemaLocation="http://sumo.dlr.de/xsd/tripinfo_file.xsd">
    <tripinfo id="NorthBound_3" depart="4.00" departLane="S-0S_0" departPos="7.10" departSpeed="0.00" departDelay="0.00" arrival="53.00" arrivalLane="0N-N_0" arrivalPos="10.00" arrivalSpeed="17.67" duration="49.00" routeLength="613.10" waitingTime="0.00" waitingCount="0" stopTime="0.00" timeLoss="14.49" rerouteNo="0" devices="tripinfo_NorthBound_3" vType="typeNS" speedFactor="1.08" vaporized=""/>
    <tripinfo id="EastBound_5" depart="11.00" departLane="W-0W_0" departPos="5.10" departSpeed="0.00" departDelay="0.00" arrival="69.00" arrivalLane="0E-E_0" arrivalPos="10.00" arrivalSpeed="13.63" duration="58.00" routeLength="615.10" waitingTime="0.00" waitingCount="0" stopTime="0.00" timeLoss="13.25" rerouteNo="0" devices="tripinfo_EastBound_5" vType="typeWE" speedFactor="0.83" vaporized=""/>
    <tripinfo id="WestBound_0" depart="0.00" departLane="E-0E_0" departPos="5.10" departSpeed="0.00" departDelay="0.00" arrival="77.00" arrivalLane="0W-W_0" arrivalPos="10.00" arrivalSpeed="16.48" duration="77.00" routeLength="615.10" waitingTime="11.00" waitingCount="1" stopTime="0.00" timeLoss="40.03" rerouteNo="0" devices="tripinfo_WestBound_0" vType="typeWE" speedFactor="1.06" vaporized=""/>
    <tripinfo id="EastBound_2" depart="3.00" departLane="W-0W_0" departPos="5.10" departSpeed="0.00" departDelay="0.00" arrival="77.00" arrivalLane="0E-E_0" arrivalPos="10.00" arrivalSpeed="16.47" duration="74.00" routeLength="615.10" waitingTime="8.00" waitingCount="1" stopTime="0.00" timeLoss="36.42" rerouteNo="0" devices="tripinfo_EastBound_2" vType="typeWE" speedFactor="1.01" vaporized=""/>
    <tripinfo id="EastBound_7" depart="22.00" departLane="W-0W_0" departPos="5.10" departSpeed="0.00" departDelay="0.00" arrival="77.00" arrivalLane="0E-E_1" arrivalPos="10.00" arrivalSpeed="14.73" duration="55.00" routeLength="615.10" waitingTime="0.00" waitingCount="0" stopTime="0.00" timeLoss="12.53" rerouteNo="0" devices="tripinfo_EastBound_7" vType="typeWE" speedFactor="0.89" vaporized=""/>
    <tripinfo id="WestBound_1" depart="4.00" departLane="E-0E_0" departPos="5.10" departSpeed="0.00" departDelay="2.00" arrival="78.00" arrivalLane="0W-W_1" arrivalPos="10.00" arrivalSpeed="15.63" duration="74.00" routeLength="615.10" waitingTime="5.00" waitingCount="1" stopTime="0.00" timeLoss="33.73" rerouteNo="0" devices="tripinfo_WestBound_1" vType="typeWE" speedFactor="0.94" vaporized=""/>
    <tripinfo id="WestBound_4" depart="10.00" departLane="E-0E_0" departPos="5.10" departSpeed="0.00" departDelay="0.00" arrival="79.00" arrivalLane="0W-W_0" arrivalPos="10.00" arrivalSpeed="16.60" duration="69.00" routeLength="615.10" waitingTime="2.00" waitingCount="1" stopTime="0.00" timeLoss="31.55" rerouteNo="0" devices="tripinfo_WestBound_4" vType="typeWE" speedFactor="1.03" vaporized=""/>
    <tripinfo id="WestBound_8" depart="22.00" departLane="E-0E_0" departPos="5.10" departSpeed="0.00" departDelay="0.00" arrival="79.00" arrivalLane="0W-W_1" arrivalPos="10.00" arrivalSpeed="15.32" duration="57.00" routeLength="615.10" waitingTime="0.00" waitingCount="0" stopTime="0.00" timeLoss="17.60" rerouteNo="0" devices="tripinfo_WestBound_8" vType="typeWE" speedFactor="0.94" vaporized=""/>
    <tripinfo id="EastBound_10" depart="27.00" departLane="W-0W_0" departPos="5.10" departSpeed="0.00" departDelay="2.00" arrival="79.00" arrivalLane="0E-E_0" arrivalPos="10.00" arrivalSpeed="16.56" duration="52.00" routeLength="615.10" waitingTime="0.00" waitingCount="0" stopTime="0.00" timeLoss="14.73" rerouteNo="0" devices="tripinfo_EastBound_10" vType="typeWE" speedFactor="1.09" vaporized=""/>
    <tripinfo id="EastBound_11" depart="32.00" departLane="W-0W_0" departPos="5.10" departSpeed="0.00" departDelay="1.00" arrival="83.00" arrivalLane="0E-E_0" arrivalPos="10.00" arrivalSpeed="16.40" duration="51.00" routeLength="615.10" waitingTime="0.00" waitingCount="0" stopTime="0.00" timeLoss="13.83" rerouteNo="0" devices="tripinfo_EastBound_11" vType="typeWE" speedFactor="1.03" vaporized=""/>
    <tripinfo id="EastBound_13" depart="37.00" departLane="W-0W_0" departPos="5.10" departSpeed="0.00" departDelay="3.00" arrival="88.00" arrivalLane="0E-E_0" arrivalPos="10.00" arrivalSpeed="16.62" duration="51.00" routeLength="615.10" waitingTime="0.00" waitingCount="0" stopTime="0.00" timeLoss="13.42" rerouteNo="0" devices="tripinfo_EastBound_13" vType="typeWE" speedFactor="1.12" vaporized=""/>
    <tripinfo id="EastBound_14" depart="42.00" departLane="W-0W_0" departPos="5.10" departSpeed="0.00" departDelay="2.00" arrival="93.00" arrivalLane="0E-E_0" arrivalPos="10.00" arrivalSpeed="16.28" duration="51.00" routeLength="615.10" waitingTime="0.00" waitingCount="0" stopTime="0.00" timeLoss="13.56" rerouteNo="0" devices="tripinfo_EastBound_14" vType="typeWE" speedFactor="0.99" vaporized=""/>
    <tripinfo id="WestBound_15" depart="41.00" departLane="E-0E_0" departPos="5.10" departSpeed="0.00" departDelay="0.00" arrival="94.00" arrivalLane="0W-W_0" arrivalPos="10.00" arrivalSpeed="15.07" duration="53.00" routeLength="615.10" waitingTime="0.00" waitingCount="0" stopTime="0.00" timeLoss="12.30" rerouteNo="0" devices="tripinfo_WestBound_15" vType="typeWE" speedFactor="0.93" vaporized=""/>
    <tripinfo id="EastBound_16" depart="47.00" departLane="W-0W_0" departPos="5.10" departSpeed="0.00" departDelay="3.00" arrival="101.00" arrivalLane="0E-E_0" arrivalPos="10.00" arrivalSpeed="14.39" duration="54.00" routeLength="615.10" waitingTime="0.00" waitingCount="0" stopTime="0.00" timeLoss="11.45" rerouteNo="0" devices="tripinfo_EastBound_16" vType="typeWE" speedFactor="0.88" vaporized=""/>
    <tripinfo id="WestBound_17" depart="49.00" departLane="E-0E_0" departPos="5.10" departSpeed="0.00" departDelay="0.00" arrival="101.00" arrivalLane="0W-W_0" arrivalPos="10.00" arrivalSpeed="15.39" duration="52.00" routeLength="615.10" waitingTime="0.00" waitingCount="0" stopTime="0.00" timeLoss="12.55" rerouteNo="0" devices="tripinfo_WestBound_17" vType="typeWE" speedFactor="0.94" vaporized=""/>
    <tripinfo id="EastBound_18" depart="56.00" departLane="W-0W_0" departPos="5.10" departSpeed="0.00" departDelay="0.00" arrival="109.00" arrivalLane="0E-E_0" arrivalPos="10.00" arrivalSpeed="15.36" duration="53.00" routeLength="615.10" waitingTime="0.00" waitingCount="0" stopTime="0.00" timeLoss="12.87" rerouteNo="0" devices="tripinfo_EastBound_18" vType="typeWE" speedFactor="0.94" vaporized=""/>
    <tripinfo id="EastBound_19" depart="63.00" departLane="W-0W_0" departPos="5.10" departSpeed="0.00" departDelay="0.00" arrival="114.00" arrivalLane="0E-E_0" arrivalPos="10.00" arrivalSpeed="16.45" duration="51.00" routeLength="615.10" waitingTime="0.00" waitingCount="0" stopTime="0.00" timeLoss="13.61" rerouteNo="0" devices="tripinfo_EastBound_19" vType="typeWE" speedFactor="1.16" vaporized=""/>
    <tripinfo id="NorthBound_6" depart="16.00" departLane="S-0S_0" departPos="7.10" departSpeed="0.00" departDelay="0.00" arrival="131.00" arrivalLane="0N-N_0" arrivalPos="10.00" arrivalSpeed="17.21" duration="115.00" routeLength="613.10" waitingTime="49.00" waitingCount="1" stopTime="0.00" timeLoss="79.70" rerouteNo="0" devices="tripinfo_NorthBound_6" vType="typeNS" speedFactor="1.05" vaporized=""/>
    <tripinfo id="SouthBound_9" depart="23.00" departLane="N-0N_0" departPos="7.10" departSpeed="0.00" departDelay="0.00" arrival="131.00" arrivalLane="0S-S_0" arrivalPos="10.00" arrivalSpeed="13.91" duration="108.00" routeLength="613.10" waitingTime="41.00" waitingCount="1" stopTime="0.00" timeLoss="65.03" rerouteNo="0" devices="tripinfo_SouthBound_9" vType="typeNS" speedFactor="0.86" vaporized=""/>
    <tripinfo id="SouthBound_12" depart="31.00" departLane="N-0N_0" departPos="7.10" departSpeed="0.00" departDelay="0.00" arrival="131.00" arrivalLane="0S-S_1" arrivalPos="10.00" arrivalSpeed="17.44" duration="100.00" routeLength="613.10" waitingTime="33.00" waitingCount="1" stopTime="0.00" timeLoss="64.47" rerouteNo="0" devices="tripinfo_SouthBound_12" vType="typeNS" speedFactor="1.05" vaporized=""/>
    <tripinfo id="SouthBound_22" depart="72.00" departLane="N-0N_0" departPos="7.10" departSpeed="0.00" departDelay="0.00" arrival="133.00" arrivalLane="0S-S_0" arrivalPos="10.00" arrivalSpeed="14.89" duration="61.00" routeLength="613.10" waitingTime="0.00" waitingCount="0" stopTime="0.00" timeLoss="22.96" rerouteNo="0" devices="tripinfo_SouthBound_22" vType="typeNS" speedFactor="0.97" vaporized=""/>
    <tripinfo id="SouthBound_25" depart="85.00" departLane="N-0N_0" departPos="7.10" departSpeed="0.00" departDelay="0.00" arrival="139.00" arrivalLane="0S-S_0" arrivalPos="10.00" arrivalSpeed="14.46" duration="54.00" routeLength="613.10" waitingTime="0.00" waitingCount="0" stopTime="0.00" timeLoss="11.65" rerouteNo="0" devices="tripinfo_SouthBound_25" vType="typeNS" speedFactor="0.87" vaporized=""/>
    <tripinfo id="SouthBound_27" depart="98.00" departLane="N-0N_0" departPos="7.10" departSpeed="0.00" departDelay="0.00" arrival="150.00" arrivalLane="0S-S_0" arrivalPos="10.00" arrivalSpeed="15.53" duration="52.00" routeLength="613.10" waitingTime="0.00" waitingCount="0" stopTime="0.00" timeLoss="13.08" rerouteNo="0" devices="tripinfo_SouthBound_27" vType="typeNS" speedFactor="0.95" vaporized=""/>
    <tripinfo id="NorthBound_28" depart="103.00" departLane="S-0S_0" departPos="7.10" departSpeed="0.00" departDelay="0.00" arrival="152.00" arrivalLane="0N-N_0" arrivalPos="10.00" arrivalSpeed="18.48" duration="49.00" routeLength="613.10" waitingTime="0.00" waitingCount="0" stopTime="0.00" timeLoss="15.85" rerouteNo="0" devices="tripinfo_NorthBound_28" vType="typeNS" speedFactor="1.13" vaporized=""/>
    <tripinfo id="EastBound_20" depart="68.00" departLane="W-0W_0" departPos="5.10" departSpeed="0.00" departDelay="4.00" arrival="175.00" arrivalLane="0E-E_0" arrivalPos="10.00" arrivalSpeed="16.64" duration="107.00" routeLength="615.10" waitingTime="41.00" waitingCount="1" stopTime="0.00" timeLoss="69.67" rerouteNo="0" devices="tripinfo_EastBound_20" vType="typeWE" speedFactor="1.02" vaporized=""/>
    <tripinfo id="WestBound_21" depart="67.00" departLane="E-0E_0" departPos="5.10" departSpeed="0.00" departDelay="0.00" arrival="176.00" arrivalLane="0W-W_0" arrivalPos="10.00" arrivalSpeed="16.52" duration="109.00" routeLength="615.10" waitingTime="44.00" waitingCount="1" stopTime="0.00" timeLoss="71.73" rerouteNo="0" devices="tripinfo_WestBound_21" vType="typeWE" speedFactor="1.01" vaporized=""/>
    <tripinfo id="WestBound_23" depart="74.00" departLane="E-0E_0" departPos="5.10" departSpeed="0.00" departDelay="0.00" arrival="177.00" arrivalLane="0W-W_1" arrivalPos="10.00" arrivalSpeed="14.48" duration="103.00" routeLength="615.10" waitingTime="36.00" waitingCount="1" stopTime="0.00" timeLoss="61.38" rerouteNo="0" devices="tripinfo_WestBound_23" vType="typeWE" speedFactor="0.89" vaporized=""/>
    <tripinfo id="EastBound_24" depart="81.00" departLane="W-0W_0" departPos="5.10" departSpeed="0.00" departDelay="0.00" arrival="178.00" arrivalLane="0E-E_0" arrivalPos="10.00" arrivalSpeed="13.37" duration="97.00" routeLength="615.10" waitingTime="27.00" waitingCount="1" stopTime="0.00" timeLoss="51.66" rerouteNo="0" devices="tripinfo_EastBound_24" vType="typeWE" speedFactor="0.83" vaporized=""/>
    <tripinfo id="EastBound_30" depart="115.00" departLane="W-0W_0" departPos="5.10" departSpeed="0.00" departDelay="0.00" arrival="178.00" arrivalLane="0E-E_1" arrivalPos="10.00" arrivalSpeed="16.37" duration="63.00" routeLength="615.10" waitingTime="0.00" waitingCount="0" stopTime="0.00" timeLoss="26.07" rerouteNo="0" devices="tripinfo_EastBound_30" vType="typeWE" speedFactor="1.18" vaporized=""/>
    <tripinfo id="WestBound_31" depart="117.00" departLane="E-0E_0" departPos="5.10" departSpeed="0.00" departDelay="0.00" arrival="178.00" arrivalLane="0W-W_0" arrivalPos="10.00" arrivalSpeed="16.37" duration="61.00" routeLength="615.10" waitingTime="0.00" waitingCount="0" stopTime="0.00" timeLoss="23.36" rerouteNo="0" devices="tripinfo_WestBound_31" vType="typeWE" speedFactor="1.15" vaporized=""/>
    <tripinfo id="EastBound_26" depart="92.00" departLane="W-0W_0" departPos="5.10" departSpeed="0.00" departDelay="0.00" arrival="179.00" arrivalLane="0E-E_0" arrivalPos="10.00" arrivalSpeed="13.97" duration="87.00" routeLength="615.10" waitingTime="19.00" waitingCount="1" stopTime="0.00" timeLoss="46.73" rerouteNo="0" devices="tripinfo_EastBound_26" vType="typeWE" speedFactor="0.92" vaporized=""/>
    <tripinfo id="WestBound_32" depart="122.00" departLane="E-0E_0" departPos="5.10" departSpeed="0.00" departDelay="2.00" arrival="179.00" arrivalLane="0W-W_1" arrivalPos="10.00" arrivalSpeed="15.92" duration="57.00" routeLength="615.10" waitingTime="0.00" waitingCount="0" stopTime="0.00" timeLoss="19.48" rerouteNo="0" devices="tripinfo_WestBound_32" vType="typeWE" speedFactor="1.01" vaporized=""/>
    <tripinfo id="WestBound_33" depart="127.00" departLane="E-0E_0" departPos="5.10" departSpeed="0.00" departDelay="4.00" arrival="179.00" arrivalLane="0W-W_0" arrivalPos="10.00" arrivalSpeed="16.44" duration="52.00" routeLength="615.10" waitingTime="0.00" waitingCount="0" stopTime="0.00" timeLoss="14.88" rerouteNo="0" devices="tripinfo_WestBound_33" vType="typeWE" speedFactor="1.17" vaporized=""/>
    <tripinfo id="EastBound_35" depart="126.00" departLane="W-0W_0" departPos="5.10" departSpeed="0.00" departDelay="0.00" arrival="180.00" arrivalLane="0E-E_1" arrivalPos="10.00" arrivalSpeed="16.48" duration="54.00" routeLength="615.10" waitingTime="0.00" waitingCount="0" stopTime="0.00" timeLoss="16.76" rerouteNo="0" devices="tripinfo_EastBound_35" vType="typeWE" speedFactor="1.02" vaporized=""/>
    <tripinfo id="EastBound_36" depart="131.00" departLane="W-0W_0" departPos="5.10" departSpeed="0.00" departDelay="4.00" arrival="182.00" arrivalLane="0E-E_0" arrivalPos="10.00" arrivalSpeed="16.08" duration="51.00" routeLength="615.10" waitingTime="0.00" waitingCount="0" stopTime="0.00" timeLoss="12.66" rerouteNo="0" devices="tripinfo_EastBound_36" vType="typeWE" speedFactor="0.97" vaporized=""/>
    <tripinfo id="WestBound_34" depart="132.00" departLane="E-0E_0" departPos="5.10" departSpeed="0.00" departDelay="7.00" arrival="183.00" arrivalLane="0W-W_0" arrivalPos="10.00" arrivalSpeed="16.31" duration="51.00" routeLength="615.10" waitingTime="0.00" waitingCount="0" stopTime="0.00" timeLoss="13.08" rerouteNo="0" devices="tripinfo_WestBound_34" vType="typeWE" speedFactor="0.99" vaporized=""/>
    <tripinfo id="WestBound_37" depart="137.00" departLane="E-0E_0" departPos="5.10" departSpeed="0.00" departDelay="8.00" arrival="187.00" arrivalLane="0W-W_0" arrivalPos="10.00" arrivalSpeed="16.47" duration="50.00" routeLength="615.10" waitingTime="0.00" waitingCount="0" stopTime="0.00" timeLoss="12.94" rerouteNo="0" devices="tripinfo_WestBound_37" vType="typeWE" speedFactor="1.18" vaporized=""/>
    <tripinfo id="EastBound_39" depart="136.00" departLane="W-0W_0" departPos="5.10" departSpeed="0.00" departDelay="4.00" arrival="190.00" arrivalLane="0E-E_0" arrivalPos="10.00" arrivalSpeed="14.77" duration="54.00" routeLength="615.10" waitingTime="0.00" waitingCount="0" stopTime="0.00" timeLoss="12.07" rerouteNo="0" devices="tripinfo_EastBound_39" vType="typeWE" speedFactor="0.90" vaporized=""/>
    <tripinfo id="WestBound_41" depart="142.00" departLane="E-0E_0" departPos="5.10" departSpeed="0.00" departDelay="5.00" arrival="194.00" arrivalLane="0W-W_0" arrivalPos="10.00" arrivalSpeed="15.69" duration="52.00" routeLength="615.10" waitingTime="0.00" waitingCount="0" stopTime="0.00" timeLoss="12.91" rerouteNo="0" devices="tripinfo_WestBound_41" vType="typeWE" speedFactor="0.96" vaporized=""/>
    <tripinfo id="WestBound_42" depart="147.00" departLane="E-0E_0" departPos="5.10" departSpeed="0.00" departDelay="0.00" arrival="198.00" arrivalLane="0W-W_0" arrivalPos="10.00" arrivalSpeed="16.37" duration="51.00" routeLength="615.10" waitingTime="0.00" waitingCount="0" stopTime="0.00" timeLoss="13.84" rerouteNo="0" devices="tripinfo_WestBound_42" vType="typeWE" speedFactor="1.09" vaporized=""/>
    <tripinfo id="EastBound_44" depart="150.00" departLane="W-0W_0" departPos="5.10" departSpeed="0.00" departDelay="0.00" arrival="201.00" arrivalLane="0E-E_0" arrivalPos="10.00" arrivalSpeed="16.55" duration="51.00" routeLength="615.10" waitingTime="0.00" waitingCount="0" stopTime="0.00" timeLoss="13.23" rerouteNo="0" devices="tripinfo_EastBound_44" vType="typeWE" speedFactor="1.04" vaporized=""/>
    <tripinfo id="EastBound_45" depart="155.00" departLane="W-0W_0" departPos="5.10" departSpeed="0.00" departDelay="3.00" arrival="206.00" arrivalLane="0E-E_0" arrivalPos="10.00" arrivalSpeed="16.54" duration="51.00" routeLength="615.10" waitingTime="0.00" waitingCount="0" stopTime="0.00" timeLoss="13.31" rerouteNo="0" devices="tripinfo_EastBound_45" vType="typeWE" speedFactor="1.09" vaporized=""/>
    <tripinfo id="WestBound_46" depart="159.00" departLane="E-0E_0" departPos="5.10" departSpeed="0.00" departDelay="0.00" arrival="211.00" arrivalLane="0W-W_0" arrivalPos="10.00" arrivalSpeed="16.53" duration="52.00" routeLength="615.10" waitingTime="0.00" waitingCount="0" stopTime="0.00" timeLoss="14.31" rerouteNo="0" devices="tripinfo_WestBound_46" vType="typeWE" speedFactor="1.00" vaporized=""/>
    <tripinfo id="NorthBound_40" depart="135.00" departLane="S-0S_0" departPos="7.10" departSpeed="0.00" departDelay="0.00" arrival="230.00" arrivalLane="0N-N_1" arrivalPos="10.00" arrivalSpeed="16.85" duration="95.00" routeLength="613.10" waitingTime="28.00" waitingCount="1" stopTime="0.00" timeLoss="58.97" rerouteNo="0" devices="tripinfo_NorthBound_40" vType="typeNS" speedFactor="1.03" vaporized=""/>
    <tripinfo id="NorthBound_29" depart="109.00" departLane="S-0S_0" departPos="7.10" departSpeed="0.00" departDelay="3.00" arrival="231.00" arrivalLane="0N-N_0" arrivalPos="10.00" arrivalSpeed="15.17" duration="122.00" routeLength="613.10" waitingTime="54.00" waitingCount="1" stopTime="0.00" timeLoss="81.62" rerouteNo="0" devices="tripinfo_NorthBound_29" vType="typeNS" speedFactor="0.93" vaporized=""/>
    <tripinfo id="SouthBound_38" depart="129.00" departLane="N-0N_0" departPos="7.10" departSpeed="0.00" departDelay="0.00" arrival="231.00" arrivalLane="0S-S_0" arrivalPos="10.00" arrivalSpeed="18.35" duration="102.00" routeLength="613.10" waitingTime="34.00" waitingCount="1" stopTime="0.00" timeLoss="67.64" rerouteNo="0" devices="tripinfo_SouthBound_38" vType="typeNS" speedFactor="1.10" vaporized=""/>
    <tripinfo id="SouthBound_43" depart="149.00" departLane="N-0N_0" departPos="7.10" departSpeed="0.00" departDelay="0.00" arrival="231.00" arrivalLane="0S-S_1" arrivalPos="10.00" arrivalSpeed="16.93" duration="82.00" routeLength="613.10" waitingTime="16.00" waitingCount="1" stopTime="0.00" timeLoss="45.76" rerouteNo="0" devices="tripinfo_SouthBound_43" vType="typeNS" speedFactor="1.04" vaporized=""/>
    <tripinfo id="SouthBound_48" depart="164.00" departLane="N-0N_0" departPos="7.10" departSpeed="0.00" departDelay="0.00" arrival="234.00" arrivalLane="0S-S_0" arrivalPos="10.00" arrivalSpeed="14.44" duration="70.00" routeLength="613.10" waitingTime="0.00" waitingCount="0" stopTime="0.00" timeLoss="27.18" rerouteNo="0" devices="tripinfo_SouthBound_48" vType="typeNS" speedFactor="0.88" vaporized=""/>
    <tripinfo id="SouthBound_54" depart="206.00" departLane="N-0N_0" departPos="7.10" departSpeed="0.00" departDelay="0.00" arrival="256.00" arrivalLane="0S-S_0" arrivalPos="10.00" arrivalSpeed="16.66" duration="50.00" routeLength="613.10" waitingTime="0.00" waitingCount="0" stopTime="0.00" timeLoss="13.00" rerouteNo="0" devices="tripinfo_SouthBound_54" vType="typeNS" speedFactor="1.00" vaporized=""/>
    <tripinfo id="WestBound_58" depart="218.00" departLane="E-0E_0" departPos="5.10" departSpeed="0.00" departDelay="0.00" arrival="269.00" arrivalLane="0W-W_1" arrivalPos="10.00" arrivalSpeed="16.56" duration="51.00" routeLength="615.10" waitingTime="0.00" waitingCount="0" stopTime="0.00" timeLoss="13.75" rerouteNo="0" devices="tripinfo_WestBound_58" vType="typeWE" speedFactor="1.02" vaporized=""/>
    <tripinfo id="WestBound_53" depart="204.00" departLane="E-0E_0" departPos="5.10" departSpeed="0.00" departDelay="0.00" arrival="275.00" arrivalLane="0W-W_0" arrivalPos="10.00" arrivalSpeed="16.50" duration="71.00" routeLength="615.10" waitingTime="4.00" waitingCount="1" stopTime="0.00" timeLoss="33.33" rerouteNo="0" devices="tripinfo_WestBound_53" vType="typeWE" speedFactor="1.10" vaporized=""/>
    <tripinfo id="EastBound_47" depart="164.00" departLane="W-0W_0" departPos="5.10" departSpeed="0.00" departDelay="0.00" arrival="276.00" arrivalLane="0E-E_0" arrivalPos="10.00" arrivalSpeed="14.83" duration="112.00" routeLength="615.10" waitingTime="44.00" waitingCount="1" stopTime="0.00" timeLoss="70.34" rerouteNo="0" devices="tripinfo_EastBound_47" vType="typeWE" speedFactor="0.90" vaporized=""/>
    <tripinfo id="EastBound_49" depart="171.00" departLane="W-0W_0" departPos="5.10" departSpeed="0.00" departDelay="0.00" arrival="276.00" arrivalLane="0E-E_1" arrivalPos="10.00" arrivalSpeed="13.84" duration="105.00" routeLength="615.10" waitingTime="36.00" waitingCount="1" stopTime="0.00" timeLoss="61.30" rerouteNo="0" devices="tripinfo_EastBound_49" vType="typeWE" speedFactor="0.85" vaporized=""/>
    <tripinfo id="EastBound_51" depart="184.00" departLane="W-0W_0" departPos="5.10" departSpeed="0.00" departDelay="4.00" arrival="278.00" arrivalLane="0E-E_1" arrivalPos="10.00" arrivalSpeed="15.14" duration="94.00" routeLength="615.10" waitingTime="26.00" waitingCount="1" stopTime="0.00" timeLoss="56.39" rerouteNo="0" devices="tripinfo_EastBound_51" vType="typeWE" speedFactor="1.17" vaporized=""/>
    <tripinfo id="EastBound_50" depart="179.00" departLane="W-0W_0" departPos="5.10" departSpeed="0.00" departDelay="0.00" arrival="279.00" arrivalLane="0E-E_0" arrivalPos="10.00" arrivalSpeed="14.22" duration="100.00" routeLength="615.10" waitingTime="31.00" waitingCount="1" stopTime="0.00" timeLoss="56.48" rerouteNo="0" devices="tripinfo_EastBound_50" vType="typeWE" speedFactor="0.85" vaporized=""/>
    <tripinfo id="EastBound_52" depart="189.00" departLane="W-0W_0" departPos="5.10" departSpeed="0.00" departDelay="7.00" arrival="281.00" arrivalLane="0E-E_0" arrivalPos="10.00" arrivalSpeed="14.92" duration="92.00" routeLength="615.10" waitingTime="24.00" waitingCount="1" stopTime="0.00" timeLoss="54.37" rerouteNo="0" devices="tripinfo_EastBound_52" vType="typeWE" speedFactor="1.02" vaporized=""/>
    <tripinfo id="EastBound_56" depart="213.00" departLane="W-0W_0" departPos="5.10" departSpeed="0.00" departDelay="0.00" arrival="281.00" arrivalLane="0E-E_1" arrivalPos="10.00" arrivalSpeed="14.79" duration="68.00" routeLength="615.10" waitingTime="0.00" waitingCount="0" stopTime="0.00" timeLoss="26.02" rerouteNo="0" devices="tripinfo_EastBound_56" vType="typeWE" speedFactor="0.90" vaporized=""/>
    <tripinfo id="EastBound_57" depart="218.00" departLane="W-0W_0" departPos="5.10" departSpeed="0.00" departDelay="2.00" arrival="282.00" arrivalLane="0E-E_0" arrivalPos="10.00" arrivalSpeed="15.14" duration="64.00" routeLength="615.10" waitingTime="0.00" waitingCount="0" stopTime="0.00" timeLoss="26.85" rerouteNo="0" devices="tripinfo_EastBound_57" vType="typeWE" speedFactor="1.14" vaporized=""/>
    <tripinfo id="EastBound_60" depart="227.00" departLane="W-0W_0" departPos="5.10" departSpeed="0.00" departDelay="0.00" arrival="282.00" arrivalLane="0E-E_1" arrivalPos="10.00" arrivalSpeed="15.37" duration="55.00" routeLength="615.10" waitingTime="0.00" waitingCount="0" stopTime="0.00" timeLoss="17.72" rerouteNo="0" devices="tripinfo_EastBound_60" vType="typeWE" speedFactor="1.08" vaporized=""/>
    <tripinfo id="WestBound_61" depart="232.00" departLane="E-0E_0" departPos="5.10" departSpeed="0.00" departDelay="0.00" arrival="283.00" arrivalLane="0W-W_0" arrivalPos="10.00" arrivalSpeed="16.48" duration="51.00" routeLength="615.10" waitingTime="0.00" waitingCount="0" stopTime="0.00" timeLoss="13.72" rerouteNo="0" devices="tripinfo_WestBound_61" vType="typeWE" speedFactor="1.12" vaporized=""/>
    <tripinfo id="EastBound_62" depart="239.00" departLane="W-0W_0" departPos="5.10" departSpeed="0.00" departDelay="0.00" arrival="290.00" arrivalLane="0E-E_0" arrivalPos="10.00" arrivalSpeed="16.49" duration="51.00" routeLength="615.10" waitingTime="0.00" waitingCount="0" stopTime="0.00" timeLoss="14.06" rerouteNo="0" devices="tripinfo_EastBound_62" vType="typeWE" speedFactor="1.02" vaporized=""/>
    <tripinfo id="EastBound_64" depart="245.00" departLane="W-0W_0" departPos="5.10" departSpeed="0.00" departDelay="0.00" arrival="299.00" arrivalLane="0E-E_0" arrivalPos="10.00" arrivalSpeed="15.47" duration="54.00" routeLength="615.10" waitingTime="0.00" waitingCount="0" stopTime="0.00" timeLoss="13.86" rerouteNo="0" devices="tripinfo_EastBound_64" vType="typeWE" speedFactor="0.94" vaporized=""/>
    <tripinfo id="EastBound_66" depart="250.00" departLane="W-0W_0" departPos="5.10" departSpeed="0.00" departDelay="0.00" arrival="304.00" arrivalLane="0E-E_0" arrivalPos="10.00" arrivalSpeed="14.99" duration="54.00" routeLength="615.10" waitingTime="0.00" waitingCount="0" stopTime="0.00" timeLoss="13.04" rerouteNo="0" devices="tripinfo_EastBound_66" vType="typeWE" speedFactor="0.91" vaporized=""/>
    <tripinfo id="WestBound_67" depart="253.00" departLane="E-0E_0" departPos="5.10" departSpeed="0.00" departDelay="0.00" arrival="306.00" arrivalLane="0W-W_0" arrivalPos="10.00" arrivalSpeed="15.23" duration="53.00" routeLength="615.10" waitingTime="0.00" waitingCount="0" stopTime="0.00" timeLoss="12.45" rerouteNo="0" devices="tripinfo_WestBound_67" vType="typeWE" speedFactor="0.91" vaporized=""/>
    <tripinfo id="WestBound_69" depart="258.00" departLane="E-0E_0" departPos="5.10" departSpeed="0.00" departDelay="0.00" arrival="309.00" arrivalLane="0W-W_0" arrivalPos="10.00" arrivalSpeed="16.42" duration="51.00" routeLength="615.10" waitingTime="0.00" waitingCount="0" stopTime="0.00" timeLoss="13.98" rerouteNo="0" devices="tripinfo_WestBound_69" vType="typeWE" speedFactor="1.02" vaporized=""/>
    <tripinfo id="NorthBound_55" depart="212.00" departLane="S-0S_0" departPos="7.10" departSpeed="0.00" departDelay="0.00" arrival="329.00" arrivalLane="0N-N_0" arrivalPos="10.00" arrivalSpeed="16.23" duration="117.00" routeLength="613.10" waitingTime="51.00" waitingCount="1" stopTime="0.00" timeLoss="79.73" rerouteNo="0" devices="tripinfo_NorthBound_55" vType="typeNS" speedFactor="1.00" vaporized=""/>
    <tripinfo id="SouthBound_59" depart="220.00" departLane="N-0N_0" departPos="7.10" departSpeed="0.00" departDelay="0.00" arrival="329.00" arrivalLane="0S-S_0" arrivalPos="10.00" arrivalSpeed="15.76" duration="109.00" routeLength="613.10" waitingTime="43.00" waitingCount="1" stopTime="0.00" timeLoss="70.63" rerouteNo="0" devices="tripinfo_SouthBound_59" vType="typeNS" speedFactor="0.97" vaporized=""/>
    <tripinfo id="SouthBound_63" depart="241.00" departLane="N-0N_0" departPos="7.10" departSpeed="0.00" departDelay="0.00" arrival="329.00" arrivalLane="0S-S_1" arrivalPos="10.00" arrivalSpeed="16.21" duration="88.00" routeLength="613.10" waitingTime="22.00" waitingCount="1" stopTime="0.00" timeLoss="50.70" rerouteNo="0" devices="tripinfo_SouthBound_63" vType="typeNS" speedFactor="0.99" vaporized=""/>
    <tripinfo id="NorthBound_65" depart="248.00" departLane="S-0S_0" departPos="7.10" departSpeed="0.00" departDelay="0.00" arrival="330.00" arrivalLane="0N-N_0" arrivalPos="10.00" arrivalSpeed="14.69" duration="82.00" routeLength="613.10" waitingTime="14.00" waitingCount="1" stopTime="0.00" timeLoss="39.90" rerouteNo="0" devices="tripinfo_NorthBound_65" vType="typeNS" speedFactor="0.88" vaporized=""/>
    <tripinfo id="SouthBound_68" depart="256.00" departLane="N-0N_0" departPos="7.10" departSpeed="0.00" departDelay="0.00" arrival="331.00" arrivalLane="0S-S_0" arrivalPos="10.00" arrivalSpeed="17.03" duration="75.00" routeLength="613.10" waitingTime="9.00" waitingCount="1" stopTime="0.00" timeLoss="39.02" rerouteNo="0" devices="tripinfo_SouthBound_68" vType="typeNS" speedFactor="1.04" vaporized=""/>
    <tripinfo id="SouthBound_70" depart="262.00" departLane="N-0N_0" departPos="7.10" departSpeed="0.00" departDelay="4.00" arrival="331.00" arrivalLane="0S-S_1" arrivalPos="10.00" arrivalSpeed="17.02" duration="69.00" routeLength="613.10" waitingTime="3.00" waitingCount="1" stopTime="0.00" timeLoss="32.93" rerouteNo="0" devices="tripinfo_SouthBound_70" vType="typeNS" speedFactor="1.02" vaporized=""/>